n -t * -s 0  -x 513 -y 517 -Z 0 -z 125  -v circle -c black
n -t * -s 1  -x 1445 -y 474 -Z 0 -z 125  -v circle -c black
n -t * -s 2  -x 36 -y 529 -Z 0 -z 70  -v circle -c black
n -t * -s 3  -x 143 -y 666 -Z 0 -z 70  -v circle -c black
n -t * -s 4  -x 201 -y 552 -Z 0 -z 40  -v circle -c black
n -t * -s 5  -x 147 -y 403 -Z 0 -z 70  -v circle -c black
n -t * -s 6  -x 230 -y 291 -Z 0 -z 70  -v circle -c black
n -t * -s 7  -x 295 -y 419 -Z 0 -z 70  -v circle -c black
n -t * -s 8  -x 363 -y 335 -Z 0 -z 70  -v circle -c black
n -t * -s 9  -x 334 -y 647 -Z 0 -z 70  -v circle -c black
n -t * -s 10  -x 304 -y 777 -Z 0 -z 70  -v circle -c black
n -t * -s 11  -x 412 -y 194 -Z 0 -z 70  -v circle -c black
n -t * -s 12  -x 519 -y 361 -Z 0 -z 70  -v circle -c black
n -t * -s 13  -x 569 -y 167 -Z 0 -z 70  -v circle -c black
n -t * -s 14  -x 349 -y 546 -Z 0 -z 70  -v circle -c black
n -t * -s 15  -x 466 -y 668 -Z 0 -z 70  -v circle -c black
n -t * -s 16  -x 489 -y 794 -Z 0 -z 70  -v circle -c black
n -t * -s 17  -x 606 -y 711 -Z 0 -z 70  -v circle -c black
n -t * -s 18  -x 630 -y 626 -Z 0 -z 70  -v circle -c black
n -t * -s 19  -x 666 -y 347 -Z 0 -z 70  -v circle -c black
n -t * -s 20  -x 741 -y 152 -Z 0 -z 70  -v circle -c black
n -t * -s 21  -x 882 -y 264 -Z 0 -z 70  -v circle -c black
n -t * -s 22  -x 761 -y 441 -Z 0 -z 70  -v circle -c black
V -t * -v 1.0a5 -a 0
W -t * -x 1800 -y 840
A -t * -n 1 -p 0 -o 0x7fffffff -c 30 -a 1
A -t * -h 1 -m 1073741823 -s 0
n -t 0 -s 0 -S DLABEL -l "Server1" -L ""
n -t 0 -s 1 -S DLABEL -l "Server2" -L ""
n -t 0 -s 2 -S DLABEL -l "node2" -L ""
n -t 0 -s 3 -S DLABEL -l "node3" -L ""
n -t 0 -s 4 -S DLABEL -l "node4" -L ""
n -t 0 -s 5 -S DLABEL -l "node5" -L ""
n -t 0 -s 6 -S DLABEL -l "node6" -L ""
n -t 0 -s 7 -S DLABEL -l "node7" -L ""
n -t 0 -s 8 -S DLABEL -l "node8" -L ""
n -t 0 -s 9 -S DLABEL -l "node9" -L ""
n -t 0 -s 10 -S DLABEL -l "node10" -L ""
n -t 0 -s 11 -S DLABEL -l "node11" -L ""
n -t 0 -s 12 -S DLABEL -l "node12" -L ""
n -t 0 -s 13 -S DLABEL -l "node13" -L ""
n -t 0 -s 14 -S DLABEL -l "node14" -L ""
n -t 0 -s 15 -S DLABEL -l "node15" -L ""
n -t 0 -s 16 -S DLABEL -l "node16" -L ""
n -t 0 -s 17 -S DLABEL -l "node17" -L ""
n -t 0 -s 18 -S DLABEL -l "node18" -L ""
n -t 0 -s 19 -S DLABEL -l "node19" -L ""
n -t 0 -s 20 -S DLABEL -l "node20" -L ""
n -t 0 -s 20 -S DLABEL -l "node21" -L "node20"
n -t 0 -s 22 -S DLABEL -l "node22" -L ""
n -t 0 -s 2 -S COLOR -c green -o blue -i green -I blue
n -t 0 -s 3 -S COLOR -c green -o green -i green -I green
n -t 0 -s 4 -S COLOR -c green -o green -i green -I green
n -t 0 -s 5 -S COLOR -c green -o blue -i green -I blue
n -t 0 -s 6 -S COLOR -c green -o green -i green -I green
n -t 0 -s 7 -S COLOR -c green -o green -i green -I green
n -t 0 -s 8 -S COLOR -c green -o green -i green -I green
n -t 0 -s 9 -S COLOR -c yellow -o maroon -i yellow -I maroon
n -t 0 -s 10 -S COLOR -c yellow -o yellow -i yellow -I yellow
n -t 0 -s 11 -S COLOR -c yellow -o yellow -i yellow -I yellow
n -t 0 -s 12 -S COLOR -c pink -o blue -i pink -I blue
n -t 0 -s 13 -S COLOR -c pink -o pink -i pink -I pink
n -t 0 -s 14 -S COLOR -c pink -o pink -i pink -I pink
n -t 0 -s 15 -S COLOR -c pink -o pink -i pink -I pink
n -t 0 -s 16 -S COLOR -c pink -o blue -i pink -I blue
n -t 0 -s 17 -S COLOR -c orange -o orange -i orange -I orange
n -t 0 -s 18 -S COLOR -c orange -o orange -i orange -I orange
n -t 0 -s 19 -S COLOR -c orange -o orange -i orange -I orange
n -t 0 -s 20 -S COLOR -c orange -o orange -i orange -I orange
n -t 0 -s 21 -S COLOR -c orange -o orange -i orange -I orange
n -t 0 -s 22 -S COLOR -c orange -o orange -i orange -I orange
n -t 0 -s 0 -S COLOR -c maroon -o maroon -i maroon -I maroon
n -t 0 -s 1 -S COLOR -c maroon -o maroon -i maroon -I maroon
v -t 0 set_rate_ext 0.012500000000000001 1
+ -t 0.000000000 -s 0 -d -1 -p cbr -e 1000 -c 2 -a 0 -i 0 -k AGT 
- -t 0.000000000 -s 0 -d -1 -p cbr -e 1000 -c 2 -a 0 -i 0 -k AGT
h -t 0.000000000 -s 0 -d -1 -p cbr -e 1000 -c 2 -a 0 -i 0 -k AGT
+ -t 0.000000000 -s 0 -d -1 -p AODV -e 48 -c 2 -a 0 -i 0 -k RTR 
- -t 0.000000000 -s 0 -d -1 -p AODV -e 48 -c 2 -a 0 -i 0 -k RTR
h -t 0.000000000 -s 0 -d -1 -p AODV -e 48 -c 2 -a 0 -i 0 -k RTR
+ -t 0.000095000 -s 0 -d -1 -p AODV -e 106 -c 2 -a 0 -i 0 -k MAC 
- -t 0.000095000 -s 0 -d -1 -p AODV -e 106 -c 2 -a 0 -i 0 -k MAC
h -t 0.000095000 -s 0 -d -1 -p AODV -e 106 -c 2 -a 0 -i 0 -k MAC
r -t 0.000943520 -s 12 -d -1 -p AODV -e 48 -c 2 -a 0 -i 0 -k MAC
r -t 0.000943527 -s 15 -d -1 -p AODV -e 48 -c 2 -a 0 -i 0 -k MAC
r -t 0.000943533 -s 18 -d -1 -p AODV -e 48 -c 2 -a 0 -i 0 -k MAC
r -t 0.000943555 -s 14 -d -1 -p AODV -e 48 -c 2 -a 0 -i 0 -k MAC
r -t 0.000943717 -s 17 -d -1 -p AODV -e 48 -c 2 -a 0 -i 0 -k MAC
r -t 0.000943737 -s 9 -d -1 -p AODV -e 48 -c 2 -a 0 -i 0 -k MAC
r -t 0.000943762 -s 19 -d -1 -p AODV -e 48 -c 2 -a 0 -i 0 -k MAC
r -t 0.000943786 -s 8 -d -1 -p AODV -e 48 -c 2 -a 0 -i 0 -k MAC
r -t 0.000943797 -s 7 -d -1 -p AODV -e 48 -c 2 -a 0 -i 0 -k MAC
r -t 0.000943865 -s 22 -d -1 -p AODV -e 48 -c 2 -a 0 -i 0 -k MAC
r -t 0.000943927 -s 16 -d -1 -p AODV -e 48 -c 2 -a 0 -i 0 -k MAC
r -t 0.000944047 -s 4 -d -1 -p AODV -e 48 -c 2 -a 0 -i 0 -k MAC
r -t 0.000944112 -s 10 -d -1 -p AODV -e 48 -c 2 -a 0 -i 0 -k MAC
r -t 0.000944128 -s 11 -d -1 -p AODV -e 48 -c 2 -a 0 -i 0 -k MAC
r -t 0.000944182 -s 13 -d -1 -p AODV -e 48 -c 2 -a 0 -i 0 -k MAC
r -t 0.000944207 -s 6 -d -1 -p AODV -e 48 -c 2 -a 0 -i 0 -k MAC
r -t 0.000944278 -s 5 -d -1 -p AODV -e 48 -c 2 -a 0 -i 0 -k MAC
r -t 0.000944330 -s 3 -d -1 -p AODV -e 48 -c 2 -a 0 -i 0 -k MAC
r -t 0.000944435 -s 20 -d -1 -p AODV -e 48 -c 2 -a 0 -i 0 -k MAC
r -t 0.000944491 -s 21 -d -1 -p AODV -e 48 -c 2 -a 0 -i 0 -k MAC
r -t 0.000944591 -s 2 -d -1 -p AODV -e 48 -c 2 -a 0 -i 0 -k MAC
r -t 0.000946110 -s 1 -d -1 -p AODV -e 48 -c 2 -a 0 -i 0 -k MAC
r -t 0.000968520 -s 12 -d -1 -p AODV -e 48 -c 2 -a 0 -i 0 -k RTR
r -t 0.000968527 -s 15 -d -1 -p AODV -e 48 -c 2 -a 0 -i 0 -k RTR
r -t 0.000968533 -s 18 -d -1 -p AODV -e 48 -c 2 -a 0 -i 0 -k RTR
+ -t 0.000968533 -s 18 -d 0 -p AODV -e 44 -c 2 -a 0 -i 0 -k RTR 
- -t 0.000968533 -s 18 -d 0 -p AODV -e 44 -c 2 -a 0 -i 0 -k RTR
h -t 0.000968533 -s 18 -d 0 -p AODV -e 44 -c 2 -a 0 -i 0 -k RTR
r -t 0.000968555 -s 14 -d -1 -p AODV -e 48 -c 2 -a 0 -i 0 -k RTR
r -t 0.000968717 -s 17 -d -1 -p AODV -e 48 -c 2 -a 0 -i 0 -k RTR
r -t 0.000968737 -s 9 -d -1 -p AODV -e 48 -c 2 -a 0 -i 0 -k RTR
r -t 0.000968762 -s 19 -d -1 -p AODV -e 48 -c 2 -a 0 -i 0 -k RTR
r -t 0.000968786 -s 8 -d -1 -p AODV -e 48 -c 2 -a 0 -i 0 -k RTR
r -t 0.000968797 -s 7 -d -1 -p AODV -e 48 -c 2 -a 0 -i 0 -k RTR
r -t 0.000968865 -s 22 -d -1 -p AODV -e 48 -c 2 -a 0 -i 0 -k RTR
r -t 0.000968927 -s 16 -d -1 -p AODV -e 48 -c 2 -a 0 -i 0 -k RTR
r -t 0.000969047 -s 4 -d -1 -p AODV -e 48 -c 2 -a 0 -i 0 -k RTR
r -t 0.000969112 -s 10 -d -1 -p AODV -e 48 -c 2 -a 0 -i 0 -k RTR
r -t 0.000969128 -s 11 -d -1 -p AODV -e 48 -c 2 -a 0 -i 0 -k RTR
r -t 0.000969182 -s 13 -d -1 -p AODV -e 48 -c 2 -a 0 -i 0 -k RTR
r -t 0.000969207 -s 6 -d -1 -p AODV -e 48 -c 2 -a 0 -i 0 -k RTR
r -t 0.000969278 -s 5 -d -1 -p AODV -e 48 -c 2 -a 0 -i 0 -k RTR
r -t 0.000969330 -s 3 -d -1 -p AODV -e 48 -c 2 -a 0 -i 0 -k RTR
r -t 0.000969435 -s 20 -d -1 -p AODV -e 48 -c 2 -a 0 -i 0 -k RTR
r -t 0.000969491 -s 21 -d -1 -p AODV -e 48 -c 2 -a 0 -i 0 -k RTR
r -t 0.000969591 -s 2 -d -1 -p AODV -e 48 -c 2 -a 0 -i 0 -k RTR
r -t 0.000971110 -s 1 -d -1 -p AODV -e 48 -c 2 -a 0 -i 0 -k RTR
+ -t 0.001235485 -s 1 -d -1 -p AODV -e 48 -c 2 -a 0 -i 0 -k RTR 
- -t 0.001235485 -s 1 -d -1 -p AODV -e 48 -c 2 -a 0 -i 0 -k RTR
h -t 0.001235485 -s 1 -d -1 -p AODV -e 48 -c 2 -a 0 -i 0 -k RTR
+ -t 0.001308146 -s 14 -d -1 -p AODV -e 48 -c 2 -a 0 -i 0 -k RTR 
- -t 0.001308146 -s 14 -d -1 -p AODV -e 48 -c 2 -a 0 -i 0 -k RTR
h -t 0.001308146 -s 14 -d -1 -p AODV -e 48 -c 2 -a 0 -i 0 -k RTR
+ -t 0.001623533 -s 18 -d -1 -p ARP -e 86 -c 2 -a 0 -i 0 -k MAC 
- -t 0.001623533 -s 18 -d -1 -p ARP -e 86 -c 2 -a 0 -i 0 -k MAC
h -t 0.001623533 -s 18 -d -1 -p ARP -e 86 -c 2 -a 0 -i 0 -k MAC
r -t 0.002311827 -s 17 -d -1 -p ARP -e 28 -c 2 -a 0 -i 0 -k MAC
r -t 0.002312066 -s 0 -d -1 -p ARP -e 28 -c 2 -a 0 -i 0 -k MAC
r -t 0.002312097 -s 15 -d -1 -p ARP -e 28 -c 2 -a 0 -i 0 -k MAC
r -t 0.002312264 -s 16 -d -1 -p ARP -e 28 -c 2 -a 0 -i 0 -k MAC
r -t 0.002312289 -s 22 -d -1 -p ARP -e 28 -c 2 -a 0 -i 0 -k MAC
r -t 0.002312471 -s 19 -d -1 -p ARP -e 28 -c 2 -a 0 -i 0 -k MAC
r -t 0.002312491 -s 12 -d -1 -p ARP -e 28 -c 2 -a 0 -i 0 -k MAC
r -t 0.002312507 -s 14 -d -1 -p ARP -e 28 -c 2 -a 0 -i 0 -k MAC
r -t 0.002312522 -s 9 -d -1 -p ARP -e 28 -c 2 -a 0 -i 0 -k MAC
r -t 0.002312731 -s 10 -d -1 -p ARP -e 28 -c 2 -a 0 -i 0 -k MAC
r -t 0.002312846 -s 7 -d -1 -p ARP -e 28 -c 2 -a 0 -i 0 -k MAC
r -t 0.002312849 -s 8 -d -1 -p ARP -e 28 -c 2 -a 0 -i 0 -k MAC
r -t 0.002312984 -s 4 -d -1 -p ARP -e 28 -c 2 -a 0 -i 0 -k MAC
r -t 0.002313003 -s 21 -d -1 -p ARP -e 28 -c 2 -a 0 -i 0 -k MAC
r -t 0.002313076 -s 13 -d -1 -p ARP -e 28 -c 2 -a 0 -i 0 -k MAC
r -t 0.002313146 -s 11 -d -1 -p ARP -e 28 -c 2 -a 0 -i 0 -k MAC
r -t 0.002313156 -s 20 -d -1 -p ARP -e 28 -c 2 -a 0 -i 0 -k MAC
r -t 0.002313162 -s 3 -d -1 -p ARP -e 28 -c 2 -a 0 -i 0 -k MAC
r -t 0.002313272 -s 6 -d -1 -p ARP -e 28 -c 2 -a 0 -i 0 -k MAC
r -t 0.002313306 -s 5 -d -1 -p ARP -e 28 -c 2 -a 0 -i 0 -k MAC
r -t 0.002313539 -s 2 -d -1 -p ARP -e 28 -c 2 -a 0 -i 0 -k MAC
r -t 0.002314297 -s 1 -d -1 -p ARP -e 28 -c 2 -a 0 -i 0 -k MAC
+ -t 0.002606336 -s 6 -d -1 -p AODV -e 48 -c 2 -a 0 -i 0 -k RTR 
- -t 0.002606336 -s 6 -d -1 -p AODV -e 48 -c 2 -a 0 -i 0 -k RTR
h -t 0.002606336 -s 6 -d -1 -p AODV -e 48 -c 2 -a 0 -i 0 -k RTR
+ -t 0.002642507 -s 14 -d -1 -p AODV -e 106 -c 2 -a 0 -i 0 -k MAC 
- -t 0.002642507 -s 14 -d -1 -p AODV -e 106 -c 2 -a 0 -i 0 -k MAC
h -t 0.002642507 -s 14 -d -1 -p AODV -e 106 -c 2 -a 0 -i 0 -k MAC
+ -t 0.002644297 -s 1 -d -1 -p AODV -e 106 -c 2 -a 0 -i 0 -k MAC 
- -t 0.002644297 -s 1 -d -1 -p AODV -e 106 -c 2 -a 0 -i 0 -k MAC
h -t 0.002644297 -s 1 -d -1 -p AODV -e 106 -c 2 -a 0 -i 0 -k MAC
d -t 0.002646299 -s 21 -d -1 -p AODV -e 106 -c 2 -a 0 -i 0 -k MAC
d -t 0.002646579 -s 22 -d -1 -p AODV -e 106 -c 2 -a 0 -i 0 -k MAC
d -t 0.002646877 -s 20 -d -1 -p AODV -e 106 -c 2 -a 0 -i 0 -k MAC
+ -t 0.002887470 -s 22 -d -1 -p AODV -e 48 -c 2 -a 0 -i 0 -k RTR 
- -t 0.002887470 -s 22 -d -1 -p AODV -e 48 -c 2 -a 0 -i 0 -k RTR
h -t 0.002887470 -s 22 -d -1 -p AODV -e 48 -c 2 -a 0 -i 0 -k RTR
r -t 0.003490847 -s 9 -d -1 -p AODV -e 48 -c 2 -a 0 -i 0 -k MAC
r -t 0.003490967 -s 7 -d -1 -p AODV -e 48 -c 2 -a 0 -i 0 -k MAC
r -t 0.003491001 -s 4 -d -1 -p AODV -e 48 -c 2 -a 0 -i 0 -k MAC
r -t 0.003491062 -s 0 -d -1 -p AODV -e 48 -c 2 -a 0 -i 0 -k MAC
r -t 0.003491070 -s 15 -d -1 -p AODV -e 48 -c 2 -a 0 -i 0 -k MAC
r -t 0.003491212 -s 8 -d -1 -p AODV -e 48 -c 2 -a 0 -i 0 -k MAC
r -t 0.003491291 -s 10 -d -1 -p AODV -e 48 -c 2 -a 0 -i 0 -k MAC
r -t 0.003491302 -s 3 -d -1 -p AODV -e 48 -c 2 -a 0 -i 0 -k MAC
r -t 0.003491332 -s 5 -d -1 -p AODV -e 48 -c 2 -a 0 -i 0 -k MAC
r -t 0.003491344 -s 12 -d -1 -p AODV -e 48 -c 2 -a 0 -i 0 -k MAC
r -t 0.003491445 -s 6 -d -1 -p AODV -e 48 -c 2 -a 0 -i 0 -k MAC
r -t 0.003491456 -s 16 -d -1 -p AODV -e 48 -c 2 -a 0 -i 0 -k MAC
r -t 0.003491481 -s 18 -d -1 -p AODV -e 48 -c 2 -a 0 -i 0 -k MAC
r -t 0.003491525 -s 17 -d -1 -p AODV -e 48 -c 2 -a 0 -i 0 -k MAC
r -t 0.003491552 -s 2 -d -1 -p AODV -e 48 -c 2 -a 0 -i 0 -k MAC
r -t 0.003491699 -s 11 -d -1 -p AODV -e 48 -c 2 -a 0 -i 0 -k MAC
r -t 0.003491755 -s 19 -d -1 -p AODV -e 48 -c 2 -a 0 -i 0 -k MAC
r -t 0.003491968 -s 13 -d -1 -p AODV -e 48 -c 2 -a 0 -i 0 -k MAC
d -t 0.003494299 -s 21 -d -1 -p AODV -e 106 -c 2 -a 0 -i 0 -k MAC
d -t 0.003494579 -s 22 -d -1 -p AODV -e 106 -c 2 -a 0 -i 0 -k MAC
d -t 0.003494877 -s 20 -d -1 -p AODV -e 106 -c 2 -a 0 -i 0 -k MAC
r -t 0.003515847 -s 9 -d -1 -p AODV -e 48 -c 2 -a 0 -i 0 -k RTR
r -t 0.003515967 -s 7 -d -1 -p AODV -e 48 -c 2 -a 0 -i 0 -k RTR
r -t 0.003516001 -s 4 -d -1 -p AODV -e 48 -c 2 -a 0 -i 0 -k RTR
r -t 0.003516062 -s 0 -d -1 -p AODV -e 48 -c 2 -a 0 -i 0 -k RTR
r -t 0.003516070 -s 15 -d -1 -p AODV -e 48 -c 2 -a 0 -i 0 -k RTR
r -t 0.003516212 -s 8 -d -1 -p AODV -e 48 -c 2 -a 0 -i 0 -k RTR
r -t 0.003516291 -s 10 -d -1 -p AODV -e 48 -c 2 -a 0 -i 0 -k RTR
r -t 0.003516302 -s 3 -d -1 -p AODV -e 48 -c 2 -a 0 -i 0 -k RTR
r -t 0.003516332 -s 5 -d -1 -p AODV -e 48 -c 2 -a 0 -i 0 -k RTR
r -t 0.003516344 -s 12 -d -1 -p AODV -e 48 -c 2 -a 0 -i 0 -k RTR
r -t 0.003516445 -s 6 -d -1 -p AODV -e 48 -c 2 -a 0 -i 0 -k RTR
r -t 0.003516456 -s 16 -d -1 -p AODV -e 48 -c 2 -a 0 -i 0 -k RTR
r -t 0.003516481 -s 18 -d -1 -p AODV -e 48 -c 2 -a 0 -i 0 -k RTR
r -t 0.003516525 -s 17 -d -1 -p AODV -e 48 -c 2 -a 0 -i 0 -k RTR
r -t 0.003516552 -s 2 -d -1 -p AODV -e 48 -c 2 -a 0 -i 0 -k RTR
r -t 0.003516699 -s 11 -d -1 -p AODV -e 48 -c 2 -a 0 -i 0 -k RTR
r -t 0.003516755 -s 19 -d -1 -p AODV -e 48 -c 2 -a 0 -i 0 -k RTR
r -t 0.003516968 -s 13 -d -1 -p AODV -e 48 -c 2 -a 0 -i 0 -k RTR
+ -t 0.003928579 -s 22 -d -1 -p AODV -e 106 -c 2 -a 0 -i 0 -k MAC 
- -t 0.003928579 -s 22 -d -1 -p AODV -e 106 -c 2 -a 0 -i 0 -k MAC
h -t 0.003928579 -s 22 -d -1 -p AODV -e 106 -c 2 -a 0 -i 0 -k MAC
+ -t 0.004013051 -s 16 -d -1 -p AODV -e 48 -c 2 -a 0 -i 0 -k RTR 
- -t 0.004013051 -s 16 -d -1 -p AODV -e 48 -c 2 -a 0 -i 0 -k RTR
h -t 0.004013051 -s 16 -d -1 -p AODV -e 48 -c 2 -a 0 -i 0 -k RTR
+ -t 0.004182642 -s 19 -d -1 -p AODV -e 48 -c 2 -a 0 -i 0 -k RTR 
- -t 0.004182642 -s 19 -d -1 -p AODV -e 48 -c 2 -a 0 -i 0 -k RTR
h -t 0.004182642 -s 19 -d -1 -p AODV -e 48 -c 2 -a 0 -i 0 -k RTR
+ -t 0.004551909 -s 10 -d -1 -p AODV -e 48 -c 2 -a 0 -i 0 -k RTR 
- -t 0.004551909 -s 10 -d -1 -p AODV -e 48 -c 2 -a 0 -i 0 -k RTR
h -t 0.004551909 -s 10 -d -1 -p AODV -e 48 -c 2 -a 0 -i 0 -k RTR
+ -t 0.004738662 -s 3 -d -1 -p AODV -e 48 -c 2 -a 0 -i 0 -k RTR 
- -t 0.004738662 -s 3 -d -1 -p AODV -e 48 -c 2 -a 0 -i 0 -k RTR
h -t 0.004738662 -s 3 -d -1 -p AODV -e 48 -c 2 -a 0 -i 0 -k RTR
r -t 0.004777025 -s 19 -d -1 -p AODV -e 48 -c 2 -a 0 -i 0 -k MAC
r -t 0.004777294 -s 21 -d -1 -p AODV -e 48 -c 2 -a 0 -i 0 -k MAC
r -t 0.004777335 -s 18 -d -1 -p AODV -e 48 -c 2 -a 0 -i 0 -k MAC
r -t 0.004777429 -s 12 -d -1 -p AODV -e 48 -c 2 -a 0 -i 0 -k MAC
r -t 0.004777444 -s 0 -d -1 -p AODV -e 48 -c 2 -a 0 -i 0 -k MAC
r -t 0.004777545 -s 20 -d -1 -p AODV -e 48 -c 2 -a 0 -i 0 -k MAC
r -t 0.004777617 -s 17 -d -1 -p AODV -e 48 -c 2 -a 0 -i 0 -k MAC
r -t 0.004777694 -s 13 -d -1 -p AODV -e 48 -c 2 -a 0 -i 0 -k MAC
r -t 0.004777820 -s 15 -d -1 -p AODV -e 48 -c 2 -a 0 -i 0 -k MAC
r -t 0.004777952 -s 8 -d -1 -p AODV -e 48 -c 2 -a 0 -i 0 -k MAC
r -t 0.004777996 -s 14 -d -1 -p AODV -e 48 -c 2 -a 0 -i 0 -k MAC
r -t 0.004778004 -s 11 -d -1 -p AODV -e 48 -c 2 -a 0 -i 0 -k MAC
r -t 0.004778065 -s 16 -d -1 -p AODV -e 48 -c 2 -a 0 -i 0 -k MAC
r -t 0.004778134 -s 7 -d -1 -p AODV -e 48 -c 2 -a 0 -i 0 -k MAC
r -t 0.004778159 -s 9 -d -1 -p AODV -e 48 -c 2 -a 0 -i 0 -k MAC
r -t 0.004778418 -s 6 -d -1 -p AODV -e 48 -c 2 -a 0 -i 0 -k MAC
r -t 0.004778470 -s 10 -d -1 -p AODV -e 48 -c 2 -a 0 -i 0 -k MAC
r -t 0.004778482 -s 4 -d -1 -p AODV -e 48 -c 2 -a 0 -i 0 -k MAC
r -t 0.004778630 -s 5 -d -1 -p AODV -e 48 -c 2 -a 0 -i 0 -k MAC
r -t 0.004778771 -s 3 -d -1 -p AODV -e 48 -c 2 -a 0 -i 0 -k MAC
r -t 0.004778862 -s 1 -d -1 -p AODV -e 48 -c 2 -a 0 -i 0 -k MAC
r -t 0.004779014 -s 2 -d -1 -p AODV -e 48 -c 2 -a 0 -i 0 -k MAC
r -t 0.004802025 -s 19 -d -1 -p AODV -e 48 -c 2 -a 0 -i 0 -k RTR
r -t 0.004802294 -s 21 -d -1 -p AODV -e 48 -c 2 -a 0 -i 0 -k RTR
r -t 0.004802335 -s 18 -d -1 -p AODV -e 48 -c 2 -a 0 -i 0 -k RTR
r -t 0.004802429 -s 12 -d -1 -p AODV -e 48 -c 2 -a 0 -i 0 -k RTR
r -t 0.004802444 -s 0 -d -1 -p AODV -e 48 -c 2 -a 0 -i 0 -k RTR
r -t 0.004802545 -s 20 -d -1 -p AODV -e 48 -c 2 -a 0 -i 0 -k RTR
r -t 0.004802617 -s 17 -d -1 -p AODV -e 48 -c 2 -a 0 -i 0 -k RTR
r -t 0.004802694 -s 13 -d -1 -p AODV -e 48 -c 2 -a 0 -i 0 -k RTR
r -t 0.004802820 -s 15 -d -1 -p AODV -e 48 -c 2 -a 0 -i 0 -k RTR
r -t 0.004802952 -s 8 -d -1 -p AODV -e 48 -c 2 -a 0 -i 0 -k RTR
r -t 0.004802996 -s 14 -d -1 -p AODV -e 48 -c 2 -a 0 -i 0 -k RTR
r -t 0.004803004 -s 11 -d -1 -p AODV -e 48 -c 2 -a 0 -i 0 -k RTR
r -t 0.004803065 -s 16 -d -1 -p AODV -e 48 -c 2 -a 0 -i 0 -k RTR
r -t 0.004803134 -s 7 -d -1 -p AODV -e 48 -c 2 -a 0 -i 0 -k RTR
r -t 0.004803159 -s 9 -d -1 -p AODV -e 48 -c 2 -a 0 -i 0 -k RTR
r -t 0.004803418 -s 6 -d -1 -p AODV -e 48 -c 2 -a 0 -i 0 -k RTR
r -t 0.004803470 -s 10 -d -1 -p AODV -e 48 -c 2 -a 0 -i 0 -k RTR
r -t 0.004803482 -s 4 -d -1 -p AODV -e 48 -c 2 -a 0 -i 0 -k RTR
r -t 0.004803630 -s 5 -d -1 -p AODV -e 48 -c 2 -a 0 -i 0 -k RTR
r -t 0.004803771 -s 3 -d -1 -p AODV -e 48 -c 2 -a 0 -i 0 -k RTR
r -t 0.004803862 -s 1 -d -1 -p AODV -e 48 -c 2 -a 0 -i 0 -k RTR
r -t 0.004804014 -s 2 -d -1 -p AODV -e 48 -c 2 -a 0 -i 0 -k RTR
+ -t 0.005087444 -s 0 -d -1 -p RTS -e 44 -c 2 -a 0 -i 0 -k MAC 
- -t 0.005087444 -s 0 -d -1 -p RTS -e 44 -c 2 -a 0 -i 0 -k MAC
h -t 0.005087444 -s 0 -d -1 -p RTS -e 44 -c 2 -a 0 -i 0 -k MAC
+ -t 0.005289734 -s 5 -d -1 -p AODV -e 48 -c 2 -a 0 -i 0 -k RTR 
- -t 0.005289734 -s 5 -d -1 -p AODV -e 48 -c 2 -a 0 -i 0 -k RTR
h -t 0.005289734 -s 5 -d -1 -p AODV -e 48 -c 2 -a 0 -i 0 -k RTR
+ -t 0.005389339 -s 9 -d -1 -p AODV -e 48 -c 2 -a 0 -i 0 -k RTR 
- -t 0.005389339 -s 9 -d -1 -p AODV -e 48 -c 2 -a 0 -i 0 -k RTR
h -t 0.005389339 -s 9 -d -1 -p AODV -e 48 -c 2 -a 0 -i 0 -k RTR
r -t 0.005439977 -s 18 -d -1 -p RTS -e 44 -c 2 -a 0 -i 0 -k MAC
+ -t 0.005449977 -s 18 -d -1 -p CTS -e 38 -c 2 -a 0 -i 0 -k MAC 
- -t 0.005449977 -s 18 -d -1 -p CTS -e 38 -c 2 -a 0 -i 0 -k MAC
h -t 0.005449977 -s 18 -d -1 -p CTS -e 38 -c 2 -a 0 -i 0 -k MAC
r -t 0.005754510 -s 0 -d -1 -p CTS -e 38 -c 2 -a 0 -i 0 -k MAC
+ -t 0.005764510 -s 0 -d -1 -p ARP -e 86 -c 2 -a 0 -i 0 -k MAC 
- -t 0.005764510 -s 0 -d -1 -p ARP -e 86 -c 2 -a 0 -i 0 -k MAC
h -t 0.005764510 -s 0 -d -1 -p ARP -e 86 -c 2 -a 0 -i 0 -k MAC
r -t 0.006453043 -s 18 -d -1 -p ARP -e 28 -c 2 -a 0 -i 0 -k MAC
+ -t 0.006463043 -s 18 -d -1 -p ACK -e 38 -c 2 -a 0 -i 0 -k MAC 
- -t 0.006463043 -s 18 -d -1 -p ACK -e 38 -c 2 -a 0 -i 0 -k MAC
h -t 0.006463043 -s 18 -d -1 -p ACK -e 38 -c 2 -a 0 -i 0 -k MAC
+ -t 0.006745598 -s 11 -d -1 -p AODV -e 48 -c 2 -a 0 -i 0 -k RTR 
- -t 0.006745598 -s 11 -d -1 -p AODV -e 48 -c 2 -a 0 -i 0 -k RTR
h -t 0.006745598 -s 11 -d -1 -p AODV -e 48 -c 2 -a 0 -i 0 -k RTR
r -t 0.006767576 -s 0 -d -1 -p ACK -e 38 -c 2 -a 0 -i 0 -k MAC
+ -t 0.006858240 -s 10 -d -1 -p AODV -e 106 -c 2 -a 0 -i 0 -k MAC 
- -t 0.006858240 -s 10 -d -1 -p AODV -e 106 -c 2 -a 0 -i 0 -k MAC
h -t 0.006858240 -s 10 -d -1 -p AODV -e 106 -c 2 -a 0 -i 0 -k MAC
+ -t 0.007204542 -s 12 -d -1 -p AODV -e 48 -c 2 -a 0 -i 0 -k RTR 
- -t 0.007204542 -s 12 -d -1 -p AODV -e 48 -c 2 -a 0 -i 0 -k RTR
h -t 0.007204542 -s 12 -d -1 -p AODV -e 48 -c 2 -a 0 -i 0 -k RTR
r -t 0.007706685 -s 9 -d -1 -p AODV -e 48 -c 2 -a 0 -i 0 -k MAC
r -t 0.007706860 -s 16 -d -1 -p AODV -e 48 -c 2 -a 0 -i 0 -k MAC
r -t 0.007706891 -s 15 -d -1 -p AODV -e 48 -c 2 -a 0 -i 0 -k MAC
r -t 0.007706892 -s 3 -d -1 -p AODV -e 48 -c 2 -a 0 -i 0 -k MAC
r -t 0.007707025 -s 14 -d -1 -p AODV -e 48 -c 2 -a 0 -i 0 -k MAC
r -t 0.007707065 -s 4 -d -1 -p AODV -e 48 -c 2 -a 0 -i 0 -k MAC
r -t 0.007707271 -s 17 -d -1 -p AODV -e 48 -c 2 -a 0 -i 0 -k MAC
r -t 0.007707352 -s 0 -d -1 -p AODV -e 48 -c 2 -a 0 -i 0 -k MAC
r -t 0.007707434 -s 7 -d -1 -p AODV -e 48 -c 2 -a 0 -i 0 -k MAC
r -t 0.007707438 -s 18 -d -1 -p AODV -e 48 -c 2 -a 0 -i 0 -k MAC
r -t 0.007707458 -s 2 -d -1 -p AODV -e 48 -c 2 -a 0 -i 0 -k MAC
r -t 0.007707592 -s 5 -d -1 -p AODV -e 48 -c 2 -a 0 -i 0 -k MAC
r -t 0.007707727 -s 8 -d -1 -p AODV -e 48 -c 2 -a 0 -i 0 -k MAC
r -t 0.007707801 -s 12 -d -1 -p AODV -e 48 -c 2 -a 0 -i 0 -k MAC
r -t 0.007707879 -s 6 -d -1 -p AODV -e 48 -c 2 -a 0 -i 0 -k MAC
r -t 0.007708114 -s 19 -d -1 -p AODV -e 48 -c 2 -a 0 -i 0 -k MAC
r -t 0.007708131 -s 22 -d -1 -p AODV -e 48 -c 2 -a 0 -i 0 -k MAC
r -t 0.007708217 -s 11 -d -1 -p AODV -e 48 -c 2 -a 0 -i 0 -k MAC
r -t 0.007708457 -s 13 -d -1 -p AODV -e 48 -c 2 -a 0 -i 0 -k MAC
r -t 0.007708783 -s 20 -d -1 -p AODV -e 48 -c 2 -a 0 -i 0 -k MAC
r -t 0.007708817 -s 21 -d -1 -p AODV -e 48 -c 2 -a 0 -i 0 -k MAC
r -t 0.007710176 -s 1 -d -1 -p AODV -e 48 -c 2 -a 0 -i 0 -k MAC
r -t 0.007731685 -s 9 -d -1 -p AODV -e 48 -c 2 -a 0 -i 0 -k RTR
r -t 0.007731860 -s 16 -d -1 -p AODV -e 48 -c 2 -a 0 -i 0 -k RTR
r -t 0.007731891 -s 15 -d -1 -p AODV -e 48 -c 2 -a 0 -i 0 -k RTR
r -t 0.007731892 -s 3 -d -1 -p AODV -e 48 -c 2 -a 0 -i 0 -k RTR
r -t 0.007732025 -s 14 -d -1 -p AODV -e 48 -c 2 -a 0 -i 0 -k RTR
r -t 0.007732065 -s 4 -d -1 -p AODV -e 48 -c 2 -a 0 -i 0 -k RTR
r -t 0.007732271 -s 17 -d -1 -p AODV -e 48 -c 2 -a 0 -i 0 -k RTR
r -t 0.007732352 -s 0 -d -1 -p AODV -e 48 -c 2 -a 0 -i 0 -k RTR
r -t 0.007732434 -s 7 -d -1 -p AODV -e 48 -c 2 -a 0 -i 0 -k RTR
r -t 0.007732438 -s 18 -d -1 -p AODV -e 48 -c 2 -a 0 -i 0 -k RTR
r -t 0.007732458 -s 2 -d -1 -p AODV -e 48 -c 2 -a 0 -i 0 -k RTR
r -t 0.007732592 -s 5 -d -1 -p AODV -e 48 -c 2 -a 0 -i 0 -k RTR
r -t 0.007732727 -s 8 -d -1 -p AODV -e 48 -c 2 -a 0 -i 0 -k RTR
r -t 0.007732801 -s 12 -d -1 -p AODV -e 48 -c 2 -a 0 -i 0 -k RTR
r -t 0.007732879 -s 6 -d -1 -p AODV -e 48 -c 2 -a 0 -i 0 -k RTR
r -t 0.007733114 -s 19 -d -1 -p AODV -e 48 -c 2 -a 0 -i 0 -k RTR
r -t 0.007733131 -s 22 -d -1 -p AODV -e 48 -c 2 -a 0 -i 0 -k RTR
r -t 0.007733217 -s 11 -d -1 -p AODV -e 48 -c 2 -a 0 -i 0 -k RTR
r -t 0.007733457 -s 13 -d -1 -p AODV -e 48 -c 2 -a 0 -i 0 -k RTR
r -t 0.007733783 -s 20 -d -1 -p AODV -e 48 -c 2 -a 0 -i 0 -k RTR
r -t 0.007733817 -s 21 -d -1 -p AODV -e 48 -c 2 -a 0 -i 0 -k RTR
r -t 0.007735176 -s 1 -d -1 -p AODV -e 48 -c 2 -a 0 -i 0 -k RTR
+ -t 0.007740713 -s 4 -d -1 -p AODV -e 48 -c 2 -a 0 -i 0 -k RTR 
- -t 0.007740713 -s 4 -d -1 -p AODV -e 48 -c 2 -a 0 -i 0 -k RTR
h -t 0.007740713 -s 4 -d -1 -p AODV -e 48 -c 2 -a 0 -i 0 -k RTR
+ -t 0.007757801 -s 12 -d -1 -p AODV -e 106 -c 2 -a 0 -i 0 -k MAC 
- -t 0.007757801 -s 12 -d -1 -p AODV -e 106 -c 2 -a 0 -i 0 -k MAC
h -t 0.007757801 -s 12 -d -1 -p AODV -e 106 -c 2 -a 0 -i 0 -k MAC
r -t 0.008606294 -s 19 -d -1 -p AODV -e 48 -c 2 -a 0 -i 0 -k MAC
r -t 0.008606322 -s 0 -d -1 -p AODV -e 48 -c 2 -a 0 -i 0 -k MAC
r -t 0.008606329 -s 8 -d -1 -p AODV -e 48 -c 2 -a 0 -i 0 -k MAC
r -t 0.008606462 -s 11 -d -1 -p AODV -e 48 -c 2 -a 0 -i 0 -k MAC
r -t 0.008606469 -s 13 -d -1 -p AODV -e 48 -c 2 -a 0 -i 0 -k MAC
r -t 0.008606573 -s 7 -d -1 -p AODV -e 48 -c 2 -a 0 -i 0 -k MAC
r -t 0.008606639 -s 14 -d -1 -p AODV -e 48 -c 2 -a 0 -i 0 -k MAC
r -t 0.008606651 -s 22 -d -1 -p AODV -e 48 -c 2 -a 0 -i 0 -k MAC
r -t 0.008606759 -s 18 -d -1 -p AODV -e 48 -c 2 -a 0 -i 0 -k MAC
r -t 0.008606793 -s 6 -d -1 -p AODV -e 48 -c 2 -a 0 -i 0 -k MAC
r -t 0.008606818 -s 20 -d -1 -p AODV -e 48 -c 2 -a 0 -i 0 -k MAC
r -t 0.008606840 -s 15 -d -1 -p AODV -e 48 -c 2 -a 0 -i 0 -k MAC
r -t 0.008606937 -s 9 -d -1 -p AODV -e 48 -c 2 -a 0 -i 0 -k MAC
r -t 0.008607004 -s 17 -d -1 -p AODV -e 48 -c 2 -a 0 -i 0 -k MAC
r -t 0.008607038 -s 4 -d -1 -p AODV -e 48 -c 2 -a 0 -i 0 -k MAC
r -t 0.008607049 -s 5 -d -1 -p AODV -e 48 -c 2 -a 0 -i 0 -k MAC
r -t 0.008607054 -s 21 -d -1 -p AODV -e 48 -c 2 -a 0 -i 0 -k MAC
r -t 0.008607248 -s 16 -d -1 -p AODV -e 48 -c 2 -a 0 -i 0 -k MAC
r -t 0.008607362 -s 10 -d -1 -p AODV -e 48 -c 2 -a 0 -i 0 -k MAC
r -t 0.008607415 -s 3 -d -1 -p AODV -e 48 -c 2 -a 0 -i 0 -k MAC
r -t 0.008607506 -s 2 -d -1 -p AODV -e 48 -c 2 -a 0 -i 0 -k MAC
r -t 0.008608911 -s 1 -d -1 -p AODV -e 48 -c 2 -a 0 -i 0 -k MAC
r -t 0.008631294 -s 19 -d -1 -p AODV -e 48 -c 2 -a 0 -i 0 -k RTR
r -t 0.008631322 -s 0 -d -1 -p AODV -e 48 -c 2 -a 0 -i 0 -k RTR
r -t 0.008631329 -s 8 -d -1 -p AODV -e 48 -c 2 -a 0 -i 0 -k RTR
r -t 0.008631462 -s 11 -d -1 -p AODV -e 48 -c 2 -a 0 -i 0 -k RTR
r -t 0.008631469 -s 13 -d -1 -p AODV -e 48 -c 2 -a 0 -i 0 -k RTR
r -t 0.008631573 -s 7 -d -1 -p AODV -e 48 -c 2 -a 0 -i 0 -k RTR
r -t 0.008631639 -s 14 -d -1 -p AODV -e 48 -c 2 -a 0 -i 0 -k RTR
r -t 0.008631651 -s 22 -d -1 -p AODV -e 48 -c 2 -a 0 -i 0 -k RTR
r -t 0.008631759 -s 18 -d -1 -p AODV -e 48 -c 2 -a 0 -i 0 -k RTR
r -t 0.008631793 -s 6 -d -1 -p AODV -e 48 -c 2 -a 0 -i 0 -k RTR
r -t 0.008631818 -s 20 -d -1 -p AODV -e 48 -c 2 -a 0 -i 0 -k RTR
r -t 0.008631840 -s 15 -d -1 -p AODV -e 48 -c 2 -a 0 -i 0 -k RTR
r -t 0.008631937 -s 9 -d -1 -p AODV -e 48 -c 2 -a 0 -i 0 -k RTR
r -t 0.008632004 -s 17 -d -1 -p AODV -e 48 -c 2 -a 0 -i 0 -k RTR
r -t 0.008632038 -s 4 -d -1 -p AODV -e 48 -c 2 -a 0 -i 0 -k RTR
r -t 0.008632049 -s 5 -d -1 -p AODV -e 48 -c 2 -a 0 -i 0 -k RTR
r -t 0.008632054 -s 21 -d -1 -p AODV -e 48 -c 2 -a 0 -i 0 -k RTR
r -t 0.008632248 -s 16 -d -1 -p AODV -e 48 -c 2 -a 0 -i 0 -k RTR
r -t 0.008632362 -s 10 -d -1 -p AODV -e 48 -c 2 -a 0 -i 0 -k RTR
r -t 0.008632415 -s 3 -d -1 -p AODV -e 48 -c 2 -a 0 -i 0 -k RTR
r -t 0.008632506 -s 2 -d -1 -p AODV -e 48 -c 2 -a 0 -i 0 -k RTR
r -t 0.008633911 -s 1 -d -1 -p AODV -e 48 -c 2 -a 0 -i 0 -k RTR
+ -t 0.008676793 -s 6 -d -1 -p AODV -e 106 -c 2 -a 0 -i 0 -k MAC 
- -t 0.008676793 -s 6 -d -1 -p AODV -e 106 -c 2 -a 0 -i 0 -k MAC
h -t 0.008676793 -s 6 -d -1 -p AODV -e 106 -c 2 -a 0 -i 0 -k MAC
+ -t 0.008707535 -s 21 -d -1 -p AODV -e 48 -c 2 -a 0 -i 0 -k RTR 
- -t 0.008707535 -s 21 -d -1 -p AODV -e 48 -c 2 -a 0 -i 0 -k RTR
h -t 0.008707535 -s 21 -d -1 -p AODV -e 48 -c 2 -a 0 -i 0 -k RTR
+ -t 0.008744408 -s 20 -d -1 -p AODV -e 48 -c 2 -a 0 -i 0 -k RTR 
- -t 0.008744408 -s 20 -d -1 -p AODV -e 48 -c 2 -a 0 -i 0 -k RTR
h -t 0.008744408 -s 20 -d -1 -p AODV -e 48 -c 2 -a 0 -i 0 -k RTR
+ -t 0.008761201 -s 2 -d -1 -p AODV -e 48 -c 2 -a 0 -i 0 -k RTR 
- -t 0.008761201 -s 2 -d -1 -p AODV -e 48 -c 2 -a 0 -i 0 -k RTR
h -t 0.008761201 -s 2 -d -1 -p AODV -e 48 -c 2 -a 0 -i 0 -k RTR
+ -t 0.009371159 -s 7 -d -1 -p AODV -e 48 -c 2 -a 0 -i 0 -k RTR 
- -t 0.009371159 -s 7 -d -1 -p AODV -e 48 -c 2 -a 0 -i 0 -k RTR
h -t 0.009371159 -s 7 -d -1 -p AODV -e 48 -c 2 -a 0 -i 0 -k RTR
r -t 0.009525257 -s 5 -d -1 -p AODV -e 48 -c 2 -a 0 -i 0 -k MAC
r -t 0.009525260 -s 8 -d -1 -p AODV -e 48 -c 2 -a 0 -i 0 -k MAC
r -t 0.009525271 -s 7 -d -1 -p AODV -e 48 -c 2 -a 0 -i 0 -k MAC
r -t 0.009525480 -s 11 -d -1 -p AODV -e 48 -c 2 -a 0 -i 0 -k MAC
r -t 0.009525668 -s 4 -d -1 -p AODV -e 48 -c 2 -a 0 -i 0 -k MAC
r -t 0.009525731 -s 14 -d -1 -p AODV -e 48 -c 2 -a 0 -i 0 -k MAC
r -t 0.009525784 -s 12 -d -1 -p AODV -e 48 -c 2 -a 0 -i 0 -k MAC
r -t 0.009525816 -s 2 -d -1 -p AODV -e 48 -c 2 -a 0 -i 0 -k MAC
r -t 0.009525996 -s 13 -d -1 -p AODV -e 48 -c 2 -a 0 -i 0 -k MAC
r -t 0.009526000 -s 0 -d -1 -p AODV -e 48 -c 2 -a 0 -i 0 -k MAC
r -t 0.009526029 -s 9 -d -1 -p AODV -e 48 -c 2 -a 0 -i 0 -k MAC
r -t 0.009526076 -s 3 -d -1 -p AODV -e 48 -c 2 -a 0 -i 0 -k MAC
r -t 0.009526258 -s 19 -d -1 -p AODV -e 48 -c 2 -a 0 -i 0 -k MAC
r -t 0.009526275 -s 15 -d -1 -p AODV -e 48 -c 2 -a 0 -i 0 -k MAC
r -t 0.009526431 -s 10 -d -1 -p AODV -e 48 -c 2 -a 0 -i 0 -k MAC
r -t 0.009526532 -s 18 -d -1 -p AODV -e 48 -c 2 -a 0 -i 0 -k MAC
r -t 0.009526558 -s 20 -d -1 -p AODV -e 48 -c 2 -a 0 -i 0 -k MAC
r -t 0.009526632 -s 22 -d -1 -p AODV -e 48 -c 2 -a 0 -i 0 -k MAC
r -t 0.009526672 -s 17 -d -1 -p AODV -e 48 -c 2 -a 0 -i 0 -k MAC
r -t 0.009526678 -s 16 -d -1 -p AODV -e 48 -c 2 -a 0 -i 0 -k MAC
r -t 0.009526968 -s 21 -d -1 -p AODV -e 48 -c 2 -a 0 -i 0 -k MAC
r -t 0.009528888 -s 1 -d -1 -p AODV -e 48 -c 2 -a 0 -i 0 -k MAC
r -t 0.009550257 -s 5 -d -1 -p AODV -e 48 -c 2 -a 0 -i 0 -k RTR
r -t 0.009550260 -s 8 -d -1 -p AODV -e 48 -c 2 -a 0 -i 0 -k RTR
r -t 0.009550271 -s 7 -d -1 -p AODV -e 48 -c 2 -a 0 -i 0 -k RTR
r -t 0.009550480 -s 11 -d -1 -p AODV -e 48 -c 2 -a 0 -i 0 -k RTR
r -t 0.009550668 -s 4 -d -1 -p AODV -e 48 -c 2 -a 0 -i 0 -k RTR
r -t 0.009550731 -s 14 -d -1 -p AODV -e 48 -c 2 -a 0 -i 0 -k RTR
r -t 0.009550784 -s 12 -d -1 -p AODV -e 48 -c 2 -a 0 -i 0 -k RTR
r -t 0.009550816 -s 2 -d -1 -p AODV -e 48 -c 2 -a 0 -i 0 -k RTR
r -t 0.009550996 -s 13 -d -1 -p AODV -e 48 -c 2 -a 0 -i 0 -k RTR
r -t 0.009551000 -s 0 -d -1 -p AODV -e 48 -c 2 -a 0 -i 0 -k RTR
r -t 0.009551029 -s 9 -d -1 -p AODV -e 48 -c 2 -a 0 -i 0 -k RTR
r -t 0.009551076 -s 3 -d -1 -p AODV -e 48 -c 2 -a 0 -i 0 -k RTR
r -t 0.009551258 -s 19 -d -1 -p AODV -e 48 -c 2 -a 0 -i 0 -k RTR
r -t 0.009551275 -s 15 -d -1 -p AODV -e 48 -c 2 -a 0 -i 0 -k RTR
r -t 0.009551431 -s 10 -d -1 -p AODV -e 48 -c 2 -a 0 -i 0 -k RTR
r -t 0.009551532 -s 18 -d -1 -p AODV -e 48 -c 2 -a 0 -i 0 -k RTR
r -t 0.009551558 -s 20 -d -1 -p AODV -e 48 -c 2 -a 0 -i 0 -k RTR
r -t 0.009551632 -s 22 -d -1 -p AODV -e 48 -c 2 -a 0 -i 0 -k RTR
r -t 0.009551672 -s 17 -d -1 -p AODV -e 48 -c 2 -a 0 -i 0 -k RTR
r -t 0.009551678 -s 16 -d -1 -p AODV -e 48 -c 2 -a 0 -i 0 -k RTR
r -t 0.009551968 -s 21 -d -1 -p AODV -e 48 -c 2 -a 0 -i 0 -k RTR
r -t 0.009553888 -s 1 -d -1 -p AODV -e 48 -c 2 -a 0 -i 0 -k RTR
+ -t 0.009596076 -s 3 -d -1 -p AODV -e 106 -c 2 -a 0 -i 0 -k MAC 
- -t 0.009596076 -s 3 -d -1 -p AODV -e 106 -c 2 -a 0 -i 0 -k MAC
h -t 0.009596076 -s 3 -d -1 -p AODV -e 106 -c 2 -a 0 -i 0 -k MAC
+ -t 0.010203442 -s 8 -d -1 -p AODV -e 48 -c 2 -a 0 -i 0 -k RTR 
- -t 0.010203442 -s 8 -d -1 -p AODV -e 48 -c 2 -a 0 -i 0 -k RTR
h -t 0.010203442 -s 8 -d -1 -p AODV -e 48 -c 2 -a 0 -i 0 -k RTR
+ -t 0.010245434 -s 13 -d -1 -p AODV -e 48 -c 2 -a 0 -i 0 -k RTR 
- -t 0.010245434 -s 13 -d -1 -p AODV -e 48 -c 2 -a 0 -i 0 -k RTR
h -t 0.010245434 -s 13 -d -1 -p AODV -e 48 -c 2 -a 0 -i 0 -k RTR
+ -t 0.010315455 -s 15 -d -1 -p AODV -e 48 -c 2 -a 0 -i 0 -k RTR 
- -t 0.010315455 -s 15 -d -1 -p AODV -e 48 -c 2 -a 0 -i 0 -k RTR
h -t 0.010315455 -s 15 -d -1 -p AODV -e 48 -c 2 -a 0 -i 0 -k RTR
+ -t 0.010396440 -s 17 -d -1 -p AODV -e 48 -c 2 -a 0 -i 0 -k RTR 
- -t 0.010396440 -s 17 -d -1 -p AODV -e 48 -c 2 -a 0 -i 0 -k RTR
h -t 0.010396440 -s 17 -d -1 -p AODV -e 48 -c 2 -a 0 -i 0 -k RTR
r -t 0.010444502 -s 4 -d -1 -p AODV -e 48 -c 2 -a 0 -i 0 -k MAC
r -t 0.010444655 -s 2 -d -1 -p AODV -e 48 -c 2 -a 0 -i 0 -k MAC
r -t 0.010444716 -s 9 -d -1 -p AODV -e 48 -c 2 -a 0 -i 0 -k MAC
r -t 0.010444728 -s 10 -d -1 -p AODV -e 48 -c 2 -a 0 -i 0 -k MAC
r -t 0.010444870 -s 14 -d -1 -p AODV -e 48 -c 2 -a 0 -i 0 -k MAC
r -t 0.010444953 -s 5 -d -1 -p AODV -e 48 -c 2 -a 0 -i 0 -k MAC